LAMMPS (22 Jul 2025 - Update 1)
  using 2 OpenMP thread(s) per MPI task
Loading plugin: ACE potential loader for ACEpotentials.jl compiled models by ACEsuit developers
Lattice spacing in x,y,z = 3.19 3.19 3.19
Created orthogonal box = (0 0 0) to (31.9 31.9 31.9)
  1 by 2 by 2 MPI processor grid
Created 2000 atoms
  using lattice units in orthogonal box = (0 0 0) to (31.9 31.9 31.9)
  create_atoms CPU = 0.000 seconds
ACE: Loaded model from /home/eng/essswb/ace-potentials-julia-1.2/ACEpotentials.jl/benchmark/deployments/tial_ace/lib/libace_tial_ace.so
ACE: Cutoff = 5.5 Angstrom
ACE: Number of species = 2
ACE: Supported elements (Z): 22 13
ACE: Element mapping:
ACE:   Type 1 -> Ti (Z=22)
ACE:   Type 2 -> Al (Z=13)
Created B2 TiAl structure
Neighbor list info ...
  update: every = 1 steps, delay = 0 steps, check = yes
  max neighbors/atom: 2000, page size: 100000
  master list distance cutoff = 7.5
  ghost atom cutoff = 7.5
  binsize = 3.75, bins = 9 9 9
  1 neighbor lists, perpetual/occasional/extra = 1 0 0
  (1) pair ace, perpetual
      attributes: full, newton on
      pair build: full/bin/atomonly
      stencil: full/bin/3d
      bin: standard
Setting up cg style minimization ...
  Unit style    : metal
  Current step  : 0
Per MPI rank memory allocation (min/avg/max) = 5.169 | 5.169 | 5.169 Mbytes
   Step          Temp          E_pair         E_mol          TotEng         Press     
         0   0             -1692931.2      0             -1692931.2     -717941.9     
         1   0             -1692931.2      0             -1692931.2     -717941.9     
Loop time of 0.152368 on 8 procs for 1 steps with 2000 atoms

187.4% CPU use with 4 MPI tasks x 2 OpenMP threads

Minimization stats:
  Stopping criterion = linesearch alpha is zero
  Energy initial, next-to-last, final = 
     -1692931.24524233  -1692931.24524233  -1692931.24524233
  Force two-norm initial, final = 1.5783408e-12 1.5783619e-12
  Force max component initial, final = 5.5566662e-14 5.5622174e-14
  Final line search alpha, max atom move = 0.5 2.7811087e-14
  Iterations, force evaluations = 1 2

MPI task timing breakdown:
Section |  min time  |  avg time  |  max time  |%varavg| %total
---------------------------------------------------------------
Pair    | 0.14383    | 0.14787    | 0.15059    |   0.7 | 97.05
Neigh   | 0          | 0          | 0          |   0.0 |  0.00
Comm    | 0.0016554  | 0.0043717  | 0.0084095  |   3.8 |  2.87
Output  | 0          | 0          | 0          |   0.0 |  0.00
Modify  | 0          | 0          | 0          |   0.0 |  0.00
Other   |            | 0.0001283  |            |       |  0.08

Nlocal:            500 ave         500 max         500 min
Histogram: 4 0 0 0 0 0 0 0 0 0
Nghost:           2134 ave        2134 max        2134 min
Histogram: 4 0 0 0 0 0 0 0 0 0
Neighs:              0 ave           0 max           0 min
Histogram: 4 0 0 0 0 0 0 0 0 0
FullNghs:        56000 ave       56000 max       56000 min
Histogram: 4 0 0 0 0 0 0 0 0 0

Total # of neighbors = 224000
Ave neighs/atom = 112
Neighbor list builds = 0
Dangerous builds = 0
New timer settings: style=full  mode=nosync  timeout=off
Setting up Verlet run ...
  Unit style    : metal
  Current step  : 0
  Time step     : 0.001
Per MPI rank memory allocation (min/avg/max) = 4.044 | 4.044 | 4.044 Mbytes
   Step         PotEng         KinEng         TotEng         Press           Temp     
         0  -1692931.2      77.517309     -1692853.7     -715391.28      300          
        10  -1692997.9      139.80545     -1692858.1     -678788.87      541.06154    
        20  -1693437.3      548.66642     -1692888.7     -522603.82      2123.3958    
        30  -1694265.5      1272.3025     -1692993.2     -285324.29      4923.9423    
        40  -1694698.7      1547.3808     -1693151.3     -81925.772      5988.5235    
        50  -1694787.4      1504.6508     -1693282.8      1162.218       5823.154     
        60  -1694800.8      1443.7448     -1693357        36006.867      5587.4415    
        70  -1694809.8      1444.7152     -1693365.1      48874.594      5591.1971    
        80  -1694898.3      1590.2329     -1693308.1      41946.49       6154.3657    
        90  -1695044.5      1841.6159     -1693202.9      17681.094      7127.2439    
       100  -1695185.5      2109.1017     -1693076.4     -6421.1587      8162.4418    
Loop time of 4.61652 on 8 procs for 100 steps with 2000 atoms

Performance: 1.872 ns/day, 12.824 hours/ns, 21.661 timesteps/s, 43.323 katom-step/s
192.6% CPU use with 4 MPI tasks x 2 OpenMP threads

MPI task timing breakdown:
Section |  min time  |  avg time  |  max time  |%varavg|  %CPU | %total
-----------------------------------------------------------------------
Pair    | 4.4756     | 4.5007     | 4.5201     |   0.8 | 192.5 | 97.49
Neigh   | 0.0065336  | 0.0065914  | 0.0066645  |   0.1 | 197.8 |  0.14
Comm    | 0.086566   | 0.10608    | 0.13113    |   5.2 | 194.5 |  2.30
Output  | 0.00032048 | 0.00034964 | 0.00043232 |   0.0 | 100.0 |  0.01
Modify  | 0.00092898 | 0.0010036  | 0.0010994  |   0.2 | 100.0 |  0.02
Other   |            | 0.001833   |            |       |       |  0.04

Nlocal:            500 ave         514 max         488 min
Histogram: 1 0 0 0 2 0 0 0 0 1
Nghost:         2284.5 ave        2294 max        2277 min
Histogram: 1 1 0 0 0 0 1 0 0 1
Neighs:              0 ave           0 max           0 min
Histogram: 4 0 0 0 0 0 0 0 0 0
FullNghs:      54126.5 ave       55673 max       52676 min
Histogram: 1 0 0 0 1 1 0 0 0 1

Total # of neighbors = 216506
Ave neighs/atom = 108.253
Neighbor list builds = 3
Dangerous builds = 0
Final potential energy: -1695185.53718005 eV
Total wall time: 0:00:04
