LAMMPS (22 Jul 2025 - Update 1)
  using 1 OpenMP thread(s) per MPI task
Loading plugin: ACE potential loader for ACEpotentials.jl compiled models by ACEsuit developers
Lattice spacing in x,y,z = 3.19 3.19 3.19
Created orthogonal box = (0 0 0) to (31.9 31.9 31.9)
  2 by 2 by 2 MPI processor grid
Created 2000 atoms
  using lattice units in orthogonal box = (0 0 0) to (31.9 31.9 31.9)
  create_atoms CPU = 0.000 seconds
ACE: Loaded model from /home/eng/essswb/ace-potentials-julia-1.2/ACEpotentials.jl/benchmark/deployments/tial_ace/lib/libace_tial_ace.so
ACE: Cutoff = 5.5 Angstrom
ACE: Number of species = 2
ACE: Supported elements (Z): 22 13
ACE: Element mapping:
ACE:   Type 1 -> Ti (Z=22)
ACE:   Type 2 -> Al (Z=13)
Created B2 TiAl structure
Neighbor list info ...
  update: every = 1 steps, delay = 0 steps, check = yes
  max neighbors/atom: 2000, page size: 100000
  master list distance cutoff = 7.5
  ghost atom cutoff = 7.5
  binsize = 3.75, bins = 9 9 9
  1 neighbor lists, perpetual/occasional/extra = 1 0 0
  (1) pair ace, perpetual
      attributes: full, newton on
      pair build: full/bin/atomonly
      stencil: full/bin/3d
      bin: standard
Setting up cg style minimization ...
  Unit style    : metal
  Current step  : 0
Per MPI rank memory allocation (min/avg/max) = 4.246 | 4.246 | 4.246 Mbytes
   Step          Temp          E_pair         E_mol          TotEng         Press     
         0   0             -1692931.2      0             -1692931.2     -717941.9     
         1   0             -1692931.2      0             -1692931.2     -717941.9     
Loop time of 0.214183 on 8 procs for 1 steps with 2000 atoms

99.6% CPU use with 8 MPI tasks x 1 OpenMP threads

Minimization stats:
  Stopping criterion = linesearch alpha is zero
  Energy initial, next-to-last, final = 
     -1692931.24524233  -1692931.24524233  -1692931.24524233
  Force two-norm initial, final = 1.5784358e-12 1.5784358e-12
  Force max component initial, final = 5.5566662e-14 5.5566662e-14
  Final line search alpha, max atom move = 0.5 2.7783331e-14
  Iterations, force evaluations = 1 2

MPI task timing breakdown:
Section |  min time  |  avg time  |  max time  |%varavg| %total
---------------------------------------------------------------
Pair    | 0.13523    | 0.14685    | 0.21372    |   6.6 | 68.56
Neigh   | 0          | 0          | 0          |   0.0 |  0.00
Comm    | 0.00032505 | 0.067183   | 0.078792   |   9.8 | 31.37
Output  | 0          | 0          | 0          |   0.0 |  0.00
Modify  | 0          | 0          | 0          |   0.0 |  0.00
Other   |            | 0.0001484  |            |       |  0.07

Nlocal:            250 ave         250 max         250 min
Histogram: 8 0 0 0 0 0 0 0 0 0
Nghost:           1479 ave        1479 max        1479 min
Histogram: 8 0 0 0 0 0 0 0 0 0
Neighs:              0 ave           0 max           0 min
Histogram: 8 0 0 0 0 0 0 0 0 0
FullNghs:        28000 ave       28000 max       28000 min
Histogram: 8 0 0 0 0 0 0 0 0 0

Total # of neighbors = 224000
Ave neighs/atom = 112
Neighbor list builds = 0
Dangerous builds = 0
New timer settings: style=full  mode=nosync  timeout=off
Setting up Verlet run ...
  Unit style    : metal
  Current step  : 0
  Time step     : 0.001
Per MPI rank memory allocation (min/avg/max) = 3.121 | 3.121 | 3.121 Mbytes
   Step         PotEng         KinEng         TotEng         Press           Temp     
         0  -1692931.2      77.517309     -1692853.7     -715391.28      300          
        10  -1692997.7      139.60024     -1692858.1     -678861.71      540.26735    
        20  -1693438        548.87981     -1692889.2     -521519.3       2124.2216    
        30  -1694258.7      1263.0896     -1692995.6     -285411.76      4888.2871    
        40  -1694679.1      1523.7398     -1693155.3     -83969.432      5897.0305    
        50  -1694771.9      1485.1403     -1693286.7     -2584.163       5747.6464    
        60  -1694795.7      1435.2551     -1693360.5      34053.111      5554.5855    
        70  -1694818.5      1450.7161     -1693367.8      49468.341      5614.4214    
        80  -1694913.5      1606.8583     -1693306.6      40225.829      6218.7078    
        90  -1695059.6      1866.9995     -1693192.6      12200.691      7225.4811    
       100  -1695160.8      2103.6057     -1693057.2     -13740.786      8141.1715    
Loop time of 5.74906 on 8 procs for 100 steps with 2000 atoms

Performance: 1.503 ns/day, 15.970 hours/ns, 17.394 timesteps/s, 34.788 katom-step/s
99.4% CPU use with 8 MPI tasks x 1 OpenMP threads

MPI task timing breakdown:
Section |  min time  |  avg time  |  max time  |%varavg|  %CPU | %total
-----------------------------------------------------------------------
Pair    | 4.2671     | 4.4864     | 5.6318     |  20.5 |  99.3 | 78.04
Neigh   | 0.0032241  | 0.0034069  | 0.0038879  |   0.4 | 100.0 |  0.06
Comm    | 0.11053    | 1.2562     | 1.4757     |  38.8 |  99.7 | 21.85
Output  | 0.00034258 | 0.00038507 | 0.00046243 |   0.0 | 100.0 |  0.01
Modify  | 0.00063177 | 0.00068231 | 0.00085083 |   0.0 | 100.0 |  0.01
Other   |            | 0.001992   |            |       |       |  0.03

Nlocal:            250 ave         264 max         241 min
Histogram: 2 1 0 1 2 0 1 0 0 1
Nghost:        1589.25 ave        1604 max        1565 min
Histogram: 1 0 0 1 1 0 2 0 1 2
Neighs:              0 ave           0 max           0 min
Histogram: 8 0 0 0 0 0 0 0 0 0
FullNghs:      27079.5 ave       28561 max       25971 min
Histogram: 2 1 0 0 2 1 0 1 0 1

Total # of neighbors = 216636
Ave neighs/atom = 108.318
Neighbor list builds = 3
Dangerous builds = 0
Final potential energy: -1695160.82365993 eV
Total wall time: 0:00:06
