LAMMPS (22 Jul 2025 - Update 1)
  using 1 OpenMP thread(s) per MPI task
Lattice spacing in x,y,z = 3.19 3.19 3.19
Created orthogonal box = (0 0 0) to (31.9 31.9 31.9)
  2 by 2 by 2 MPI processor grid
Created 2000 atoms
  using lattice units in orthogonal box = (0 0 0) to (31.9 31.9 31.9)
  create_atoms CPU = 0.000 seconds
ACE version: 2023.11.25
Recursive evaluator is used
Loading /home/eng/essswb/ace-potentials-julia-1.2/ACEpotentials.jl/benchmark/lammps/tial_model.yace
Total number of basis functions
	Al: 32 (r=1) 1166 (r>1)
	Ti: 32 (r=1) 1166 (r>1)
Mapping LAMMPS atom type #1(Ti) -> ACE species type #1
Mapping LAMMPS atom type #2(Al) -> ACE species type #0
Reading pair table potential file /home/eng/essswb/ace-potentials-julia-1.2/ACEpotentials.jl/benchmark/lammps/tial_model_pairpot.table with DATE: none
WARNING: 1 of 5500 force values in table Ti_Ti are inconsistent with -dE/dr.
WARNING:  Should only be flagged at inflection points (src/pair_table.cpp:469)
Reading pair table potential file /home/eng/essswb/ace-potentials-julia-1.2/ACEpotentials.jl/benchmark/lammps/tial_model_pairpot.table with DATE: none
Reading pair table potential file /home/eng/essswb/ace-potentials-julia-1.2/ACEpotentials.jl/benchmark/lammps/tial_model_pairpot.table with DATE: none
WARNING: 1 of 5500 force values in table Al_Al are inconsistent with -dE/dr.
WARNING:  Should only be flagged at inflection points (src/pair_table.cpp:469)
Created B2 TiAl structure
Neighbor list info ...
  update: every = 1 steps, delay = 0 steps, check = yes
  max neighbors/atom: 2000, page size: 100000
  master list distance cutoff = 7.5
  ghost atom cutoff = 7.5
  binsize = 3.75, bins = 9 9 9
  2 neighbor lists, perpetual/occasional/extra = 2 0 0
  (1) pair pace, perpetual
      attributes: full, newton on
      pair build: full/bin/atomonly
      stencil: full/bin/3d
      bin: standard
  (2) pair table, perpetual, half/full from (1)
      attributes: half, newton on
      pair build: halffull/newton
      stencil: none
      bin: none
Setting up cg style minimization ...
  Unit style    : metal
  Current step  : 0
Per MPI rank memory allocation (min/avg/max) = 4.878 | 4.878 | 4.878 Mbytes
   Step          Temp          E_pair         E_mol          TotEng         Press     
         0   0             -1704277        0             -1704277       -242374.52    
         1   0             -1704277        0             -1704277       -242374.52    
Loop time of 0.0640854 on 8 procs for 1 steps with 2000 atoms

99.8% CPU use with 8 MPI tasks x 1 OpenMP threads

Minimization stats:
  Stopping criterion = energy tolerance
  Energy initial, next-to-last, final = 
     -1704276.97433635  -1704276.97433635  -1704276.97433635
  Force two-norm initial, final = 9.7247898e-13 9.3961046e-13
  Force max component initial, final = 4.1855408e-14 4.4464432e-14
  Final line search alpha, max atom move = 1 4.4464432e-14
  Iterations, force evaluations = 1 2

MPI task timing breakdown:
Section |  min time  |  avg time  |  max time  |%varavg| %total
---------------------------------------------------------------
Pair    | 0.058374   | 0.0611     | 0.062715   |   0.5 | 95.34
Neigh   | 0          | 0          | 0          |   0.0 |  0.00
Comm    | 0.0012888  | 0.0029033  | 0.0056293  |   2.4 |  4.53
Output  | 0          | 0          | 0          |   0.0 |  0.00
Modify  | 0          | 0          | 0          |   0.0 |  0.00
Other   |            | 8.183e-05  |            |       |  0.13

Nlocal:            250 ave         250 max         250 min
Histogram: 8 0 0 0 0 0 0 0 0 0
Nghost:           1479 ave        1479 max        1479 min
Histogram: 8 0 0 0 0 0 0 0 0 0
Neighs:          14000 ave       14000 max       14000 min
Histogram: 8 0 0 0 0 0 0 0 0 0
FullNghs:        28000 ave       28000 max       28000 min
Histogram: 8 0 0 0 0 0 0 0 0 0

Total # of neighbors = 224000
Ave neighs/atom = 112
Neighbor list builds = 0
Dangerous builds = 0
New timer settings: style=full  mode=nosync  timeout=off
Setting up Verlet run ...
  Unit style    : metal
  Current step  : 0
  Time step     : 0.001
Per MPI rank memory allocation (min/avg/max) = 3.753 | 3.753 | 3.753 Mbytes
   Step         PotEng         KinEng         TotEng         Press           Temp     
         0  -1704277        77.517309     -1704199.5     -239823.9       300          
        10  -1704254.4      54.921984     -1704199.4     -235987.64      212.55376    
        20  -1704221.6      22.15632      -1704199.4     -225380.13      85.747251    
        30  -1704224.6      25.20707      -1704199.4     -223414.72      97.553967    
        40  -1704248.3      48.81509      -1704199.4     -229401.18      188.91945    
        50  -1704253.8      54.409757     -1704199.4     -228628.85      210.57138    
        60  -1704246.2      46.74117      -1704199.4     -220052.77      180.89316    
        70  -1704250.8      51.411557     -1704199.4     -214115.26      198.96804    
        80  -1704268.9      69.434163     -1704199.4     -210292.37      268.71739    
        90  -1704282.1      82.714823     -1704199.4     -203234.11      320.11492    
       100  -1704288        88.589563     -1704199.4     -193976.14      342.85077    
Loop time of 2.28626 on 8 procs for 100 steps with 2000 atoms

Performance: 3.779 ns/day, 6.351 hours/ns, 43.740 timesteps/s, 87.479 katom-step/s
99.6% CPU use with 8 MPI tasks x 1 OpenMP threads

MPI task timing breakdown:
Section |  min time  |  avg time  |  max time  |%varavg|  %CPU | %total
-----------------------------------------------------------------------
Pair    | 2.1918     | 2.2147     | 2.2495     |   1.2 |  99.7 | 96.87
Neigh   | 0          | 0          | 0          |   0.0 | 100.0 |  0.00
Comm    | 0.034679   | 0.069383   | 0.092347   |   6.5 |  98.3 |  3.03
Output  | 0.00024441 | 0.00026518 | 0.00034358 |   0.0 | 100.0 |  0.01
Modify  | 0.00052554 | 0.00055198 | 0.00060244 |   0.0 | 100.0 |  0.02
Other   |            | 0.001312   |            |       |       |  0.06

Nlocal:            250 ave         250 max         250 min
Histogram: 8 0 0 0 0 0 0 0 0 0
Nghost:           1479 ave        1479 max        1479 min
Histogram: 8 0 0 0 0 0 0 0 0 0
Neighs:          14000 ave       14133 max       13914 min
Histogram: 1 1 0 3 2 0 0 0 0 1
FullNghs:        28000 ave       28000 max       28000 min
Histogram: 8 0 0 0 0 0 0 0 0 0

Total # of neighbors = 224000
Ave neighs/atom = 112
Neighbor list builds = 0
Dangerous builds = 0
Final potential energy: -1704288.01638167 eV
Total wall time: 0:00:11
