2
Lattice="2.614036117884091 0.0 0.0 0.0 2.6528336296738044 0.0 0.0 0.0 3.8250280122051756" Properties=species:S:1:pos:R:3:force:R:3:tags:I:1 config_type=FLD_TiAl spacegroup="P 1" virial="5.072173561696366 0.1220123768779895 0.6518229755809941 0.1220123768779895 4.667636799854875 0.5969893898844183 0.6518229755809941 0.5969893898844183 4.700422750506493" energy=-1703.64063822 unit_cell=conventional n_minim_iter=2 pbc="T T T"
Ti       1.30924260       1.32316179       1.62637131       0.86219000       0.78737000       2.65969000        0
Al       0.11095015       0.09471147      -0.05013464      -0.86219000      -0.78737000      -2.65969000        1
2
Lattice="2.6908842560297805 0.0 0.0 0.0 2.6528336296738044 0.0 0.0 0.0 3.8250280122051756" Properties=species:S:1:pos:R:3:force:R:3:tags:I:1 config_type=FLD_TiAl spacegroup="P 1" virial="3.0897142978251115 -0.013739024395569297 0.16683140005686004 -0.013739024395569297 3.5412173903394755 -0.09520840382028548 0.16683140005686004 -0.09520840382028548 3.3447940094597395" energy=-1704.01640266 unit_cell=conventional n_minim_iter=2 pbc="T T T"
Ti       1.21270081       1.40712397       1.79628288       0.33705000      -0.19337000       1.37981000        0
Al      -0.08428119       0.05283914       0.02532551      -0.33705000       0.19337000      -1.37981000        1
2
Lattice="2.6528336296738044 0.0 0.0 0.0 2.6528336296738044 0.20022357247519112 0.0 0.0 3.8250280122051756" Properties=species:S:1:pos:R:3:force:R:3:tags:I:1 config_type=FLD_TiAl spacegroup="P 1" virial="3.787630505599698 0.07294441851667346 0.01430820029873555 0.07294441851667346 3.600445118783856 -2.0985604057765173 0.01430820029873555 -2.0985604057765173 3.9556299232898438" energy=-1703.90288087 unit_cell=conventional n_minim_iter=2 pbc="T T T"
Ti       1.30886832       1.25027253       2.02149038       0.44918000       0.96806000      -0.03179000        0
Al       0.04567914       0.08050819       0.04525615      -0.44918000      -0.96806000       0.03179000        1
2
Lattice="2.6528336296738044 0.09738032697840568 0.0 0.0 2.6528336296738044 0.0 0.0 0.0 3.8250280122051756" Properties=species:S:1:pos:R:3:force:R:3:tags:I:1 config_type=FLD_TiAl spacegroup="P 1" virial="3.538575480165158 -0.2949081021730576 0.09849759642011155 -0.2949081021730576 3.5379161950701934 -0.09512371670757988 0.09849759642011155 -0.09512371670757988 3.6788607299183713" energy=-1704.02962943 unit_cell=conventional n_minim_iter=2 pbc="T T T"
Ti       1.24781866       1.41041729       2.00575671       0.37289000      -0.35992000       0.74196000        0
Al      -0.02828451      -0.01332885       0.16512263      -0.37289000       0.35992000      -0.74196000        1
2
Lattice="2.6528336296738044 0.0 0.0 0.0 2.6528336296738044 0.0 0.1878944627629673 0.0 3.8250280122051756" Properties=species:S:1:pos:R:3:force:R:3:tags:I:1 config_type=FLD_TiAl spacegroup="P 1" virial="3.4310725265062647 -0.06646984909273441 -1.3115584812462215 -0.06646984909273441 3.639897216024936 -0.03960582962178616 -1.3115584812462215 -0.03960582962178616 3.979967691311282" energy=-1703.96766853 unit_cell=conventional n_minim_iter=2 pbc="T T T"
Ti       1.25671128       1.35313350       1.92894250       0.83821000      -0.44928000       0.15879000        0
Al      -0.02793015      -0.03825121       0.05133570      -0.83821000       0.44928000      -0.15879000        1
2
Lattice="2.6528336296738044 0.0 0.3621019538467712 0.0 2.6528336296738044 0.0 0.0 0.0 3.8250280122051756" Properties=species:S:1:pos:R:3:force:R:3:tags:I:1 config_type=FLD_TiAl spacegroup="P 1" virial="4.589503139729938 -0.06086290154198464 -3.824678329214648 -0.06086290154198464 4.154327933264996 0.6608156982299384 -3.824678329214648 0.6608156982299384 4.639036048820621" energy=-1703.51512574 unit_cell=conventional n_minim_iter=2 pbc="T T T"
Ti       1.38426981       1.17888213       1.85242560       0.07012000       1.73564000       1.18976000        0
Al       0.16321294       0.08524881      -0.09062157      -0.07012000      -1.73564000      -1.18976000        1
2
Lattice="2.6528336296738044 0.0 0.0 0.0 2.6528336296738044 0.0 0.0 0.21107905791187154 3.8250280122051756" Properties=species:S:1:pos:R:3:force:R:3:tags:I:1 config_type=FLD_TiAl spacegroup="P 1" virial="3.5978276359871066 -0.008153192610428952 -0.038023982229052455 -0.008153192610428952 3.4652831056261424 -1.5946789221100062 -0.038023982229052455 -1.5946789221100062 3.744058212542155" energy=-1704.01440754 unit_cell=conventional n_minim_iter=2 pbc="T T T"
Ti       1.41303183       1.37269410       2.05773119       0.25245000      -0.21305000      -0.38494000        0
Al       0.12346288      -0.10332445       0.10000536      -0.25245000       0.21305000       0.38494000        1
2
Lattice="2.708100996958675 0.0 0.0 0.0 2.708100996958675 0.0 0.0 -0.2091898567062485 3.9047160957927836" Properties=species:S:1:pos:R:3:force:R:3:tags:I:1 config_type=FLD_TiAl spacegroup="P 1" virial="2.4969654282576825 -0.38918454154974136 -0.370648863287938 -0.38918454154974136 1.5163684401980595 1.7060602533407716 -0.370648863287938 1.7060602533407716 4.1336775258953695" energy=-1703.69819026 unit_cell=conventional n_minim_iter=2 pbc="T T T"
Ti       1.39700098       1.44185219       2.00908186       0.96610000      -2.03724000      -1.32786000        0
Al       0.18496601      -0.17701489      -0.01825064      -0.96610000       2.03724000       1.32786000        1
2
Lattice="2.708100996958675 0.0 0.0 0.0 2.510643957884488 0.0 0.0 0.0 3.9047160957927836" Properties=species:S:1:pos:R:3:force:R:3:tags:I:1 config_type=FLD_TiAl spacegroup="P 1" virial="3.3658750924003247 -0.11669963033457596 0.01730729460944889 -0.11669963033457596 4.994664707401359 -0.09430825165260188 0.01730729460944889 -0.09430825165260188 4.975045862931676" energy=-1703.63639388 unit_cell=conventional n_minim_iter=2 pbc="T T T"
Ti       1.29872129       1.37127607       1.92996450       0.33503000      -1.84855000       0.16200000        0
Al      -0.00814326      -0.21799921      -0.00916046      -0.33503000       1.84855000      -0.16200000        1
2
Lattice="2.5441184187595876 0.0 0.0 0.0 2.708100996958675 0.0 0.0 0.0 3.9047160957927836" Properties=species:S:1:pos:R:3:force:R:3:tags:I:1 config_type=FLD_TiAl spacegroup="P 1" virial="5.030195143883329 0.06534791951135734 -0.37107553648360025 0.06534791951135734 3.01213341453257 -0.23724528764147426 -0.37107553648360025 -0.23724528764147426 3.650904710181222" energy=-1703.88383963 unit_cell=conventional n_minim_iter=2 pbc="T T T"
Ti       1.41077472       1.35737605       1.87773892      -0.72932000      -0.45890000       1.45529000        0
Al       0.02616626      -0.06448530       0.06715721       0.72932000       0.45890000      -1.45529000        1
2
Lattice="2.708100996958675 0.0 0.0 0.0 2.708100996958675 -0.057557967370385085 0.0 0.0 3.9047160957927836" Properties=species:S:1:pos:R:3:force:R:3:tags:I:1 config_type=FLD_TiAl spacegroup="P 1" virial="1.925871538276433 -0.2592980616996617 0.0031952395765513617 -0.2592980616996617 1.7178188493726654 0.5220373018726323 0.0031952395765513617 0.5220373018726323 2.8289466557437133" energy=-1704.00245635 unit_cell=conventional n_minim_iter=2 pbc="T T T"
Ti       1.30223099       1.45324824       1.94139258       0.92188000      -1.34613000      -0.03688000        0
Al       0.10080094      -0.13870622       0.03047241      -0.92188000       1.34613000       0.03688000        1
2
Lattice="2.708100996958675 -0.4598653763587342 0.0 0.0 2.708100996958675 0.0 0.0 0.0 3.9047160957927836" Properties=species:S:1:pos:R:3:force:R:3:tags:I:1 config_type=FLD_TiAl spacegroup="P 1" virial="1.9607993299825883 1.1883417171384538 0.04892897155899135 1.1883417171384538 1.3904185913080707 0.22366820023590206 0.04892897155899135 0.22366820023590206 3.3414413139405563" energy=-1703.89968004 unit_cell=conventional n_minim_iter=2 pbc="T T T"
Ti       1.39700098       1.53786093       1.99693429      -0.20178000      -1.33128000      -0.52287000        0
Al       0.11503471       0.11129691      -0.00346739       0.20178000       1.33128000       0.52287000        1
2
Lattice="2.708100996958675 0.0 0.0 0.0 2.708100996958675 0.0 -0.053148333285351845 0.0 3.9047160957927836" Properties=species:S:1:pos:R:3:force:R:3:tags:I:1 config_type=FLD_TiAl spacegroup="P 1" virial="2.2578620599649573 0.007706145009957597 0.5005205081609604 0.007706145009957597 2.2717179285364972 0.0921545200107637 0.5005205081609604 0.0921545200107637 2.1934643182324356" energy=-1704.04160018 unit_cell=conventional n_minim_iter=2 pbc="T T T"
Ti       1.37839538       1.27010208       2.08914416      -0.23206000      -0.12840000      -1.82673000        0
Al       0.02779797      -0.10369590      -0.07714548       0.23206000       0.12840000       1.82673000        1
2
Lattice="2.7633683642435463 0.0 0.0 0.0 2.7643819448408546 0.0 0.0 0.0 3.9844041793803915" Properties=species:S:1:pos:R:3:force:R:3:tags:I:1 config_type=FLD_TiAl spacegroup="P 1" virial="0.33844688632237624 -0.2491085163885316 -0.3340826572449077 -0.2491085163885316 0.32417751189605426 0.3384791815795551 -0.3340826572449077 0.3384791815795551 1.0992032730602495" energy=-1704.08733505 unit_cell=conventional n_minim_iter=2 pbc="T T T"
Ti       1.55420956       1.28909488       1.86676109      -0.95182000       0.96428000       0.69891000        0
Al      -0.01397712       0.09617008      -0.03281157       0.95182000      -0.96428000      -0.69891000        1
2
Lattice="2.7633683642435463 0.0 0.08523467400601657 0.0 2.7633683642435463 0.0 0.0 0.0 3.9844041793803915" Properties=species:S:1:pos:R:3:force:R:3:tags:I:1 config_type=FLD_TiAl spacegroup="P 1" virial="1.3118229316997632 0.12138621345242107 0.6861220965369691 0.12138621345242107 1.6069742513733294 0.43541820405537923 0.6861220965369691 0.43541820405537923 1.8222421574524224" energy=-1703.75446845 unit_cell=conventional n_minim_iter=2 pbc="T T T"
Ti       1.53278240       1.47243044       2.07899729      -1.17049000      -0.43920000      -2.55739000        0
Al      -0.07641266       0.02621884      -0.30035050       1.17049000       0.43920000       2.55739000        1
2
Lattice="2.7633683642435463 0.0 0.0 0.0 2.7633683642435463 0.0 0.0 0.1616130942984379 3.9844041793803915" Properties=species:S:1:pos:R:3:force:R:3:tags:I:1 config_type=FLD_TiAl spacegroup="P 1" virial="1.3747110258528001 0.11253524023015768 -0.3445377296917664 0.11253524023015768 1.0848520974582259 -1.8989403373132656 -0.3445377296917664 -1.8989403373132656 1.5417243404942949" energy=-1703.83724641 unit_cell=conventional n_minim_iter=2 pbc="T T T"
Ti       1.36075443       1.51394815       2.10367775       0.35570000       1.17201000      -2.45465000        0
Al       0.03370480       0.19518790      -0.19252641      -0.35570000      -1.17201000       2.45465000        1
2
Lattice="2.7633683642435463 0.0 0.0 0.26291755941657735 2.7633683642435463 0.0 0.0 0.0 3.9844041793803915" Properties=species:S:1:pos:R:3:force:R:3:tags:I:1 config_type=FLD_TiAl spacegroup="P 1" virial="1.948073607370402 -1.558323143627628 -0.8749593801247595 -1.558323143627628 1.9984152266940425 1.3724287782518485 -0.8749593801247595 1.3724287782518485 2.130597774029748" energy=-1703.53886219 unit_cell=conventional n_minim_iter=2 pbc="T T T"
Ti       1.45770205       1.41918585       2.21788671       0.78160000      -1.25126000      -3.25980000        0
Al       0.01371144      -0.11731328      -0.17524605      -0.78160000       1.25126000       3.25980000        1
2
Lattice="2.7633683642435463 0.0 0.0 0.0 2.7633683642435463 0.0 0.0 0.0 4.203980546225244" Properties=species:S:1:pos:R:3:force:R:3:tags:I:1 config_type=FLD_TiAl spacegroup="P 1" virial="-0.5239779550246363 -0.14593225684384276 -0.24428818793302445 -0.14593225684384276 -0.6291281569134339 0.4606945992115043 -0.24428818793302445 0.4606945992115043 -0.8342869232794586" energy=-1704.07736741 unit_cell=conventional n_minim_iter=2 pbc="T T T"
Ti       1.35501491       1.62452347       2.10377276       0.47727000      -0.90581000      -0.72851000        0
Al       0.08922916       0.00666524      -0.12662810      -0.47727000       0.90581000       0.72851000        1
2
Lattice="2.7633683642435463 0.0 0.0 0.0 2.9682342943480213 0.0 0.0 0.0 3.9844041793803915" Properties=species:S:1:pos:R:3:force:R:3:tags:I:1 config_type=FLD_TiAl spacegroup="P 1" virial="-0.3009731120303833 0.08007380573508355 -0.09831726452054972 0.08007380573508355 -2.0332992349519143 -0.655782551199764 -0.09831726452054972 -0.655782551199764 -0.1449287846252948" energy=-1703.98052973 unit_cell=conventional n_minim_iter=2 pbc="T T T"
Ti       1.40641633       1.26224460       1.91976562       0.18559000       1.17642000      -0.91156000        0
Al       0.06230843       0.05820411      -0.21889121      -0.18559000      -1.17642000       0.91156000        1
2
Lattice="2.8186357315284174 -0.144913437528705 0.0 0.0 2.8186357315284174 0.0 0.0 0.0 4.064092262967999" Properties=species:S:1:pos:R:3:force:R:3:tags:I:1 config_type=FLD_TiAl spacegroup="P 1" virial="-1.1937164610155715 0.3044173090612081 0.11849970357747826 0.3044173090612081 -1.193303937303091 -0.12711614903464352 0.11849970357747826 -0.12711614903464352 -0.8150942575767295" energy=-1704.18113626 unit_cell=conventional n_minim_iter=2 pbc="T T T"
Ti       1.58698493       1.22168410       2.11478699      -0.42285000       0.45367000      -0.42696000        0
Al       0.06109675       0.00933132       0.00738039       0.42285000      -0.45367000       0.42696000        1
2
Lattice="2.8186357315284174 0.1213305451997064 0.0 0.0 2.8186357315284174 0.0 0.0 0.0 4.064092262967999" Properties=species:S:1:pos:R:3:force:R:3:tags:I:1 config_type=FLD_TiAl spacegroup="P 1" virial="-1.2718702572720795 -0.31878087285375184 0.012616333412863086 -0.31878087285375184 -1.2848001651337067 0.03863354093848505 0.012616333412863086 0.03863354093848505 -1.0788037186293198" energy=-1704.23733677 unit_cell=conventional n_minim_iter=2 pbc="T T T"
Ti       1.44897889       1.58412858       2.09451936      -0.09683000      -0.27259000      -0.19921000        0
Al       0.00868704       0.04366819       0.02535994       0.09683000       0.27259000       0.19921000        1
2
Lattice="2.8186357315284174 0.0 0.0 0.0 2.8186357315284174 0.0 -0.09062438907587089 0.0 4.064092262967999" Properties=species:S:1:pos:R:3:force:R:3:tags:I:1 config_type=FLD_TiAl spacegroup="P 1" virial="-0.8140926733798423 -0.11282513460042569 -0.09158630995053686 -0.11282513460042569 -0.767980704279931 0.344120751509004 -0.09158630995053686 0.344120751509004 -0.38617358401058477" energy=-1704.06104366 unit_cell=conventional n_minim_iter=2 pbc="T T T"
Ti       1.38103745       1.24812573       1.86840952      -0.69367000       0.47455000       1.16659000        0
Al      -0.15484491      -0.06088535       0.04728978       0.69367000      -0.47455000      -1.16659000        1
2
Lattice="2.8186357315284174 0.0 -0.015485539304272516 0.0 2.8186357315284174 0.0 0.0 0.0 4.064092262967999" Properties=species:S:1:pos:R:3:force:R:3:tags:I:1 config_type=FLD_TiAl spacegroup="P 1" virial="-0.9649296412230998 -0.09074554349793855 0.0958649083578031 -0.09074554349793855 -1.1849373840801591 0.1577368148720352 0.0958649083578031 0.1577368148720352 -0.36232842366284024" energy=-1704.08638115 unit_cell=conventional n_minim_iter=2 pbc="T T T"
Ti       1.50769671       1.20940331       2.10932014      -0.24693000       1.12150000       0.21764000        0
Al       0.04256986       0.08400380       0.12169295       0.24693000      -1.12150000      -0.21764000        1
2
Lattice="2.8186357315284174 0.0 0.0 0.0 2.8186357315284174 0.0 0.0 -0.1368428104737452 4.064092262967999" Properties=species:S:1:pos:R:3:force:R:3:tags:I:1 config_type=FLD_TiAl spacegroup="P 1" virial="-1.0443453932624867 -3.2244159255927644e-05 0.00019245732555881807 -3.2244159255927644e-05 -1.0857140450098557 0.4866099080468971 0.00019245732555881807 0.4866099080468971 -0.8683835750010153" energy=-1704.17870138 unit_cell=conventional n_minim_iter=2 pbc="T T T"
Ti       1.40103953       1.43103060       1.99095003       0.00055000      -0.36614000       0.70463000        0
Al      -0.00818532      -0.01833026       0.10172829      -0.00055000       0.36614000      -0.70463000        1
2
Lattice="2.8186357315284174 0.0 0.0 -0.23556036160739585 2.8186357315284174 0.0 0.0 0.0 4.064092262967999" Properties=species:S:1:pos:R:3:force:R:3:tags:I:1 config_type=FLD_TiAl spacegroup="P 1" virial="-0.9503171928262995 0.9331701519859877 -0.601592579953535 0.9331701519859877 -0.8135362601066822 -0.523502264385562 -0.601592579953535 -0.523502264385562 -0.1422678809949993" energy=-1704.01202227 unit_cell=conventional n_minim_iter=2 pbc="T T T"
Ti       1.53718926       1.49988627       1.92548157      -0.84454000      -0.71557000       1.24482000        0
Al       0.08076183      -0.02623304       0.08860940       0.84454000       0.71557000      -1.24482000        1
2
Lattice="2.8186357315284174 0.0 0.0 0.0 2.8186357315284174 0.0 0.0 0.0 3.7933924523169607" Properties=species:S:1:pos:R:3:force:R:3:tags:I:1 config_type=FLD_TiAl spacegroup="P 1" virial="0.6571953033478168 -0.06607355864040197 -0.17951272248420908 -0.06607355864040197 0.5397935656311035 0.5912810677905989 -0.17951272248420908 0.5912810677905989 1.5267979968243115" energy=-1704.04335258 unit_cell=conventional n_minim_iter=2 pbc="T T T"
Ti       1.46617539       1.67297869       2.00782366       0.26762000      -0.88416000      -1.60045000        0
Al       0.09863816       0.12075599      -0.09480067      -0.26762000       0.88416000       1.60045000        1
2
Lattice="2.873903098813288 0.0 0.0 0.0 2.873903098813288 0.0 0.0 0.0 4.070116435039974" Properties=species:S:1:pos:R:3:force:R:3:tags:I:1 config_type=FLD_TiAl spacegroup="P 1" virial="-1.9535178055576794 0.26407484389570973 -0.14639373091743377 0.26407484389570973 -1.9849030725133152 -0.16822791796420591 -0.14639373091743377 -0.16822791796420591 -1.0047720957300534" energy=-1704.0146124 unit_cell=conventional n_minim_iter=2 pbc="T T T"
Ti       1.41125311       1.28749997       1.98636334       0.75710000       0.87221000      -0.26572000        0
Al       0.16671512       0.07784541      -0.09738161      -0.75710000      -0.87221000       0.26572000        1
2
Lattice="2.873903098813288 0.0 0.0 0.0 2.728106074371196 0.0 0.0 0.0 4.143780346555607" Properties=species:S:1:pos:R:3:force:R:3:tags:I:1 config_type=FLD_TiAl spacegroup="P 1" virial="-1.0536992812895958 -0.025036529195158162 -0.3055485454713824 -0.025036529195158162 0.33017769472069974 0.2341858800557667 -0.3055485454713824 0.2341858800557667 -0.5782743122899683" energy=-1703.96814563 unit_cell=conventional n_minim_iter=2 pbc="T T T"
Ti       1.57257391       1.27428471       1.90411679      -0.29740000       0.23752000       1.70748000        0
Al       0.07427028      -0.04213560       0.14494115       0.29740000      -0.23752000      -1.70748000        1
2
Lattice="3.203496776218611 0.0 0.0 0.0 2.873903098813288 0.0 0.0 0.0 4.143780346555607" Properties=species:S:1:pos:R:3:force:R:3:tags:I:1 config_type=FLD_TiAl spacegroup="P 1" virial="-5.127717311978133 -0.024573955642640925 -0.011736103850803618 -0.024573955642640925 -3.580190772210216 0.005498738967428338 -0.011736103850803618 0.005498738967428338 -3.7168175176361338" energy=-1703.70590199 unit_cell=conventional n_minim_iter=2 pbc="T T T"
Ti       1.59370120       1.45324371       2.00915334       0.21251000      -0.12770000      -0.03037000        0
Al       0.09290781      -0.03120484      -0.07408251      -0.21251000       0.12770000       0.03037000        1
2
Lattice="2.873903098813288 0.0 0.0 0.0 2.873903098813288 0.21324209737690633 0.0 0.0 4.143780346555607" Properties=species:S:1:pos:R:3:force:R:3:tags:I:1 config_type=FLD_TiAl spacegroup="P 1" virial="-2.309788857880163 0.000633366771542874 0.00031913995166443635 0.000633366771542874 -2.2837415692950525 -1.3204116439920381 0.00031913995166443635 -1.3204116439920381 -2.2157342127276842" energy=-1704.07760431 unit_cell=conventional n_minim_iter=2 pbc="T T T"
Ti       1.49741560       1.40316307       2.09954724       0.00445000       0.34931000       0.03211000        0
Al       0.06168546       0.08350700      -0.03466150      -0.00445000      -0.34931000      -0.03211000        1
2
Lattice="2.873903098813288 0.24694706860645266 0.0 0.0 2.873903098813288 0.0 0.0 0.0 4.143780346555607" Properties=species:S:1:pos:R:3:force:R:3:tags:I:1 config_type=FLD_TiAl spacegroup="P 1" virial="-2.5020593571934353 -0.6795707173161075 0.03297459078894291 -0.6795707173161075 -2.5331603358565093 -0.023076766384410342 0.03297459078894291 -0.023076766384410342 -2.1389814815812382" energy=-1704.10518906 unit_cell=conventional n_minim_iter=2 pbc="T T T"
Ti       1.47569464       1.44005564       2.04067922      -0.29576000       0.19907000      -0.12103000        0
Al      -0.03852467      -0.07827896      -0.05783474       0.29576000      -0.19907000       0.12103000        1
2
Lattice="2.873903098813288 0.0 0.0 0.0 2.873903098813288 0.0 0.21762894586522066 0.0 4.143780346555607" Properties=species:S:1:pos:R:3:force:R:3:tags:I:1 config_type=FLD_TiAl spacegroup="P 1" virial="-2.354174517663726 -0.031901178300914934 -0.8750086913303707 -0.031901178300914934 -2.321798047266122 -0.11899306125493146 -0.8750086913303707 -0.11899306125493146 -2.067471062050453" energy=-1704.08107587 unit_cell=conventional n_minim_iter=2 pbc="T T T"
Ti       1.50323039       1.48662122       2.12340151       0.23762000      -0.34802000       0.33442000        0
Al       0.05170713      -0.04833043       0.14872856      -0.23762000       0.34802000      -0.33442000        1
128
Lattice="10.8324039878347 0.0 0.0 0.0 10.8324039878347 0.0 0.0 0.0 15.618864383171134" Properties=species:S:1:pos:R:3:force:R:3 virial="348.110013295698 -10.29965789878165 55.24137655139204 -10.29965789878165 432.00052595491536 -30.300530006913885 55.24137655139204 -30.300530006913885 372.7723311798436" config_type=TiAl_T5000 energy=-108888.148359 pbc="T T T"
Ti       0.19867712       3.57669731       0.94024002      -0.75527000       1.34695000       1.02382000
Al      -2.92334086       2.08646183      -1.67873116      14.36257000      -3.52772000       4.91422000
Ti       2.55464916       2.29890694       7.68351291      -0.47293000      -0.81873000       0.56618000
Al      -4.32660297      -1.50014713       4.75664705      -1.99779000      -0.28864000       2.12087000
Ti      -1.60738793       0.51030372       7.19248705      -2.82722000       0.98045000      -0.31780000
Al      -4.52451099      -1.91811544      10.87649297      -4.18740000       2.83245000       2.55600000
Ti      -2.84374436      -1.47286031      15.96018343       0.55223000       0.39632000       2.53030000
Al       6.32036109       2.20129614      13.36824850     -12.96553000      15.90900000      -8.79489000
Ti       0.55203014       1.45716415       1.01764711       1.49033000      -2.72948000      -1.29085000
Al       5.62419498       4.61206932       5.26071466     -15.61879000       3.34499000      13.96604000
Ti       3.26255760       2.42806169       5.23517782       1.67835000       0.65385000       0.31061000
Al       0.59461232       8.39557888       6.19297344      -5.61453000       3.15360000       2.65741000
Ti       1.48421266       3.11095810      14.32974579       0.22367000       0.43516000      -1.18972000
Al      -0.68362218       4.07069826       5.79238081      -1.44297000       1.20236000      -1.25113000
Ti       4.08878838       7.60900553      16.71602713      -2.99166000      -0.32571000      -1.56921000
Al      -0.87765220       2.04954500      14.53004211       2.40736000       3.68559000       6.33260000
Ti       5.39895681       7.97960374       2.52756959       2.35605000      -1.32158000       4.27144000
Al       4.99743209       4.27500823      -1.45875508      -3.04029000      -7.77091000      -1.65237000
Ti      -2.43959820       8.89100971       6.59039545       1.01462000       1.40621000      -0.89163000
Al       2.95001024       5.97096190      -0.68010783       2.30383000      -7.48984000       0.60890000
Ti       3.78658597       7.85600601      11.38727669       1.48885000      -2.40825000       0.14997000
Al      -0.65945509       5.12791923       7.80530881      -2.95393000      -1.91777000      -0.31874000
Ti       7.80498539       6.29676811      14.31706327       0.29269000       1.31914000      -0.49806000
Al       5.06870931       5.75644780      12.71102231      -4.29994000       3.82879000      -0.26193000
Ti      -1.42162303      10.37786548      -1.09845911       0.86087000      -0.11444000       0.60621000
Al       2.28767373       9.84182397       1.11895106      -0.22379000      -1.34573000       0.64238000
Ti      -2.87004544       6.97539656       7.48401315       0.63730000      -1.29640000       2.24636000
Al      -4.19909475       5.46413538       4.16175575      11.59125000       9.57523000     -11.76533000
Ti       3.49433854      12.49842772      12.65759017       0.42216000       0.95184000       0.26560000
Al       2.48591756       7.83208806      14.36009325      -1.38466000       5.98477000      -2.60331000
Ti      -3.09372375      10.60157629      12.32117545       1.43274000       2.37081000       0.12500000
Al      -1.43189215       9.29205781      11.08269322       2.67606000       2.95138000       1.81336000
Ti       2.21052535       0.28338652       5.98210315      -1.30327000      -0.03195000      -3.09978000
Al      -2.75807088      -3.45250380       2.86359383       1.85400000       2.18049000       1.50958000
Ti      -0.58002107       0.22425243       4.69712356      -1.43942000      -1.01905000       1.65815000
Al      -3.27980278      -0.80471763       3.05962620       5.35484000      -1.95346000      -4.23853000
Ti       2.46052640       4.81504690      12.68278340       0.91677000       0.62157000      -0.97517000
Al       3.54273772      -1.29168835       9.45853437       6.90015000     -19.26088000      13.92194000
Ti       5.44163648       2.99722869      16.27154549       3.47737000      -3.39818000       0.47030000
Al       5.81042567       0.58242587      13.71270694      -4.99356000     -16.30267000       4.40137000
Ti       9.47202737       6.60646654       5.27638038      -0.20261000       0.48134000      -0.19714000
Al       4.44055986       1.92768045       2.96867755       1.06681000       1.04842000       5.07661000
Ti       0.49321019       0.42143468       7.84716737       1.66968000      -1.53683000       0.35886000
Al       5.89463678       3.59918538       3.23093391       2.62322000      -0.01096000      -6.76025000
Ti       2.45941067       7.50295630       8.39873194      -0.94878000      -0.12503000       0.73156000
Al       3.16509846       0.25091097       8.96082364     -10.50228000      19.05928000      -2.15300000
Ti       5.29231179       7.98418585      13.70763081      -1.11538000       0.20974000       0.00918000
Al       5.25543829       3.63527895      11.79953662      -2.12309000      -0.96808000      -0.40777000
Ti       2.96583639       9.91691420      -3.18913782       1.06495000      -0.23581000       0.33682000
Al       1.36721187       3.98851281       4.87570966       3.93677000      -3.65082000       7.56149000
Ti       1.61918442      11.41115767       3.30023481       1.16626000      -0.07703000       1.31712000
Al       6.16012817       2.86319936       5.11091414       3.20923000     -12.54431000       2.72095000
Ti       1.62625798       7.59569251      11.85553025      -2.17224000      -0.11462000      -0.89842000
Al      -2.74289468       8.19384702       9.91751032      -1.00158000      -3.19491000      -6.18383000
Ti       7.44807934       8.91684500      13.55370690      -0.66931000      -0.63562000      -0.04639000
Al       8.84761510       7.23054300      11.84114527      -0.37035000      -2.96327000       1.07605000
Ti       4.03200492       9.88710342      -0.94672185      -0.53943000      -0.53075000       0.72149000
Al       3.05857260       3.32865692       0.81546091      -2.99987000      -2.49676000      -6.01639000
Ti       5.48588685       9.96504257       1.14297288      -0.32454000       1.80928000      -0.91686000
Al       3.57858215      11.50181406       1.75118707      -1.92072000      -2.35608000      -4.48985000
Ti       5.89477760       8.68337419       8.00126308      -0.53525000      -1.71026000      -0.18296000
Al      -0.46317193       7.17989068       7.99496868      -7.45854000       4.09438000     -19.07711000
Ti       3.64953440      12.23729096      15.07737397       0.86800000      -0.05173000      -1.45098000
Al       1.34456131      11.27900234      14.24879322       1.50020000      -0.38912000       0.52061000
Ti       7.96742812       4.04236069      -0.15058147       0.71139000      -0.98017000       1.93998000
Al       0.57149597      -1.83724071      -0.12087439      -0.92861000       0.46254000      -0.50187000
Ti       8.67252012       3.06536451       8.05258667       0.55164000      -1.47490000       1.38002000
Al       6.40312066       1.00454298       2.91179365      -1.17286000       1.39420000      -0.99399000
Ti      10.81343645      -1.88435084       3.90538771      -0.41632000      -1.22918000       0.11651000
Al      -1.19886548      -1.37535784       8.80441633       0.02065000       1.16744000      -2.67660000
Ti       7.73777032       0.73840165      16.29392732       0.65584000       1.52608000      -0.51896000
Al       2.50592501      -2.39223893       5.41424810      -3.41150000      -0.75364000      -2.24716000
Ti       8.65809136       1.74559857       2.83704176      -0.04689000       0.23516000      -3.11635000
Al       1.39201807      -4.41017497       1.01955261      -4.95937000       4.48901000      -6.26862000
Ti       1.71423876       4.68954267       7.52569990       2.27795000      -1.17431000       0.55594000