LAMMPS (22 Jul 2025 - Update 1)
  using 1 OpenMP thread(s) per MPI task
Loading plugin: ACE potential loader for ACEpotentials.jl compiled models by ACEsuit developers
Lattice spacing in x,y,z = 3.19 3.19 3.19
Created orthogonal box = (0 0 0) to (31.9 31.9 31.9)
  1 by 1 by 2 MPI processor grid
Created 2000 atoms
  using lattice units in orthogonal box = (0 0 0) to (31.9 31.9 31.9)
  create_atoms CPU = 0.000 seconds
ACE: Loaded model from /home/eng/essswb/ace-potentials-julia-1.2/ACEpotentials.jl/benchmark/deployments/tial_etace_codegen/lib/libace_etace_spline.so
ACE: Cutoff = 5.5 Angstrom
ACE: Number of species = 2
ACE: Supported elements (Z): 22 13
ACE: Element mapping:
ACE:   Type 1 -> Ti (Z=22)
ACE:   Type 2 -> Al (Z=13)
Created B2 TiAl structure (ETACE codegen)
Neighbor list info ...
  update: every = 1 steps, delay = 0 steps, check = yes
  max neighbors/atom: 2000, page size: 100000
  master list distance cutoff = 7.5
  ghost atom cutoff = 7.5
  binsize = 3.75, bins = 9 9 9
  1 neighbor lists, perpetual/occasional/extra = 1 0 0
  (1) pair ace, perpetual
      attributes: full, newton on
      pair build: full/bin/atomonly
      stencil: full/bin/3d
      bin: standard
Setting up cg style minimization ...
  Unit style    : metal
  Current step  : 0
Per MPI rank memory allocation (min/avg/max) = 4.734 | 4.734 | 4.734 Mbytes
   Step          Temp          E_pair         E_mol          TotEng         Press     
         0   0              50325.695      0              50325.695      2782535.9    
         1   0              50325.695      0              50325.695      2782535.9    
Loop time of 0.156706 on 2 procs for 1 steps with 2000 atoms

97.2% CPU use with 2 MPI tasks x 1 OpenMP threads

Minimization stats:
  Stopping criterion = linesearch alpha is zero
  Energy initial, next-to-last, final = 
      50325.6949482635   50325.6949482635   50325.6949482635
  Force two-norm initial, final = 1.2645748e-12 1.2645748e-12
  Force max component initial, final = 5.5289107e-14 5.5289107e-14
  Final line search alpha, max atom move = 0.5 2.7644553e-14
  Iterations, force evaluations = 1 2

MPI task timing breakdown:
Section |  min time  |  avg time  |  max time  |%varavg| %total
---------------------------------------------------------------
Pair    | 0.11874    | 0.13753    | 0.15632    |   5.1 | 87.76
Neigh   | 0          | 0          | 0          |   0.0 |  0.00
Comm    | 0.00021133 | 0.018999   | 0.037788   |  13.6 | 12.12
Output  | 0          | 0          | 0          |   0.0 |  0.00
Modify  | 0          | 0          | 0          |   0.0 |  0.00
Other   |            | 0.0001771  |            |       |  0.11

Nlocal:           1000 ave        1000 max        1000 min
Histogram: 2 0 0 0 0 0 0 0 0 0
Nghost:           3014 ave        3014 max        3014 min
Histogram: 2 0 0 0 0 0 0 0 0 0
Neighs:              0 ave           0 max           0 min
Histogram: 2 0 0 0 0 0 0 0 0 0
FullNghs:       112000 ave      112000 max      112000 min
Histogram: 2 0 0 0 0 0 0 0 0 0

Total # of neighbors = 224000
Ave neighs/atom = 112
Neighbor list builds = 0
Dangerous builds = 0
New timer settings: style=full  mode=nosync  timeout=off
Setting up Verlet run ...
  Unit style    : metal
  Current step  : 0
  Time step     : 0.001
Per MPI rank memory allocation (min/avg/max) = 3.609 | 3.609 | 3.609 Mbytes
   Step         PotEng         KinEng         TotEng         Press           Temp     
         0   50325.695      77.517309      50403.212      2785086.5      300          
        10   50281.095      122.1828       50403.277      2809424.5      472.86008    
        20   49975.923      428.03549      50403.959      2883818.6      1656.5416    
        30   48004.757      2402.3597      50407.117      2976699.7      9297.3803    
        40   39716.707      10684.615      50401.322      2920222.1      41350.565    
        50   31007.1        19381.729      50388.829      2898895.2      75009.293    
        60   32061.602      18338.05       50399.653      2766348.7      70970.15     
        70   32618.074      17780.157      50398.231      2748270.9      68811.046    
        80   31723.453      18675.346      50398.798      2769451.3      72275.518    
        90   30632.859      19765.759      50398.618      2754731.7      76495.53     
       100   30141.894      20256.893      50398.787      2715092.1      78396.271    
Loop time of 4.62294 on 2 procs for 100 steps with 2000 atoms

Performance: 1.869 ns/day, 12.841 hours/ns, 21.631 timesteps/s, 43.263 katom-step/s
99.5% CPU use with 2 MPI tasks x 1 OpenMP threads

MPI task timing breakdown:
Section |  min time  |  avg time  |  max time  |%varavg|  %CPU | %total
-----------------------------------------------------------------------
Pair    | 3.1996     | 3.8765     | 4.5534     |  34.4 |  99.5 | 83.85
Neigh   | 0.055974   | 0.05685    | 0.057726   |   0.4 |  99.8 |  1.23
Comm    | 0.0080068  | 0.68572    | 1.3634     |  81.8 |  98.6 | 14.83
Output  | 0.00029795 | 0.00034015 | 0.00038236 |   0.0 | 100.0 |  0.01
Modify  | 0.0011575  | 0.0014242  | 0.0016909  |   0.7 | 100.0 |  0.03
Other   |            | 0.002093   |            |       |       |  0.05

Nlocal:           1000 ave        1027 max         973 min
Histogram: 1 0 0 0 0 0 0 0 0 1
Nghost:         3230.5 ave        3279 max        3182 min
Histogram: 1 0 0 0 0 0 0 0 0 1
Neighs:              0 ave           0 max           0 min
Histogram: 2 0 0 0 0 0 0 0 0 0
FullNghs:       108574 ave      111116 max      106032 min
Histogram: 1 0 0 0 0 0 0 0 0 1

Total # of neighbors = 217148
Ave neighs/atom = 108.574
Neighbor list builds = 13
Dangerous builds = 0
Final potential energy: 30141.8935342372 eV
Total wall time: 0:00:04
