LAMMPS (22 Jul 2025 - Update 1)
  using 1 OpenMP thread(s) per MPI task
Loading plugin: ACE potential loader for ACEpotentials.jl compiled models by ACEsuit developers
Lattice spacing in x,y,z = 3.19 3.19 3.19
Created orthogonal box = (0 0 0) to (31.9 31.9 31.9)
  2 by 2 by 2 MPI processor grid
Created 2000 atoms
  using lattice units in orthogonal box = (0 0 0) to (31.9 31.9 31.9)
  create_atoms CPU = 0.001 seconds
ACE: Loaded model from /home/eng/essswb/ace-potentials-julia-1.2/ACEpotentials.jl/benchmark/deployments/tial_etace_codegen/lib/libace_etace_spline.so
ACE: Cutoff = 5.5 Angstrom
ACE: Number of species = 2
ACE: Supported elements (Z): 22 13
ACE: Element mapping:
ACE:   Type 1 -> Ti (Z=22)
ACE:   Type 2 -> Al (Z=13)
Created B2 TiAl structure (ETACE Hermite Spline)
Neighbor list info ...
  update: every = 1 steps, delay = 0 steps, check = yes
  max neighbors/atom: 2000, page size: 100000
  master list distance cutoff = 7.5
  ghost atom cutoff = 7.5
  binsize = 3.75, bins = 9 9 9
  1 neighbor lists, perpetual/occasional/extra = 1 0 0
  (1) pair ace, perpetual
      attributes: full, newton on
      pair build: full/bin/atomonly
      stencil: full/bin/3d
      bin: standard
Setting up cg style minimization ...
  Unit style    : metal
  Current step  : 0
Per MPI rank memory allocation (min/avg/max) = 4.246 | 4.246 | 4.246 Mbytes
   Step          Temp          E_pair         E_mol          TotEng         Press     
         0   0              66269.114      0              66269.114      3580870.2    
         1   0              66269.114      0              66269.114      3580870.2    
Loop time of 0.0901762 on 8 procs for 1 steps with 2000 atoms

98.0% CPU use with 8 MPI tasks x 1 OpenMP threads

Minimization stats:
  Stopping criterion = linesearch alpha is zero
  Energy initial, next-to-last, final = 
      66269.1135615321   66269.1135615321   66269.1135615321
  Force two-norm initial, final = 1.5078338e-12 1.5078338e-12
  Force max component initial, final = 7.4606987e-14 7.4606987e-14
  Final line search alpha, max atom move = 0.5 3.7303494e-14
  Iterations, force evaluations = 1 2

MPI task timing breakdown:
Section |  min time  |  avg time  |  max time  |%varavg| %total
---------------------------------------------------------------
Pair    | 0.086565   | 0.088243   | 0.08943    |   0.3 | 97.86
Neigh   | 0          | 0          | 0          |   0.0 |  0.00
Comm    | 0.00059056 | 0.0017818  | 0.0034582  |   2.2 |  1.98
Output  | 0          | 0          | 0          |   0.0 |  0.00
Modify  | 0          | 0          | 0          |   0.0 |  0.00
Other   |            | 0.0001512  |            |       |  0.17

Nlocal:            250 ave         250 max         250 min
Histogram: 8 0 0 0 0 0 0 0 0 0
Nghost:           1479 ave        1479 max        1479 min
Histogram: 8 0 0 0 0 0 0 0 0 0
Neighs:              0 ave           0 max           0 min
Histogram: 8 0 0 0 0 0 0 0 0 0
FullNghs:        28000 ave       28000 max       28000 min
Histogram: 8 0 0 0 0 0 0 0 0 0

Total # of neighbors = 224000
Ave neighs/atom = 112
Neighbor list builds = 0
Dangerous builds = 0
New timer settings: style=full  mode=nosync  timeout=off
Setting up Verlet run ...
  Unit style    : metal
  Current step  : 0
  Time step     : 0.001
Per MPI rank memory allocation (min/avg/max) = 3.121 | 3.121 | 3.121 Mbytes
   Step         PotEng         KinEng         TotEng         Press           Temp     
         0   66269.114      77.517309      66346.631      3583420.9      300          
        10   66184.537      162.31964      66346.857      3604716.6      628.19379    
        20   65325.733      1023.9091      66349.643      3648108.4      3962.6343    
        30   58183.24       8170.7838      66354.024      3598912.7      31621.778    
        40   42522.852      23799.346      66322.198      3663043.9      92105.93     
        50   41188.198      25148.073      66336.271      3520118.1      97325.641    
        60   42734.012      23606.417      66340.429      3455996.2      91359.275    
        70   41136.699      25199.661      66336.36       3515749        97525.293    
        80   40267.282      26070.047      66337.33       3475309.6      100893.78    
        90   39568.027      26770.684      66338.71       3449274.7      103605.31    
       100   38835.275      27501.705      66336.98       3436585.4      106434.44    
Loop time of 3.13181 on 8 procs for 100 steps with 2000 atoms

Performance: 2.759 ns/day, 8.699 hours/ns, 31.930 timesteps/s, 63.861 katom-step/s
98.0% CPU use with 8 MPI tasks x 1 OpenMP threads

MPI task timing breakdown:
Section |  min time  |  avg time  |  max time  |%varavg|  %CPU | %total
-----------------------------------------------------------------------
Pair    | 2.6036     | 2.651      | 2.7619     |   2.9 |  99.0 | 84.65
Neigh   | 0.016976   | 0.017831   | 0.02038    |   0.8 |  97.8 |  0.57
Comm    | 0.34707    | 0.46052    | 0.50872    |   7.0 |  92.4 | 14.70
Output  | 0.00038926 | 0.00041438 | 0.00050314 |   0.0 | 100.0 |  0.01
Modify  | 0.00044532 | 0.00049482 | 0.00064868 |   0.0 | 100.0 |  0.02
Other   |            | 0.001562   |            |       |       |  0.05

Nlocal:            250 ave         263 max         237 min
Histogram: 1 0 1 2 0 0 1 2 0 1
Nghost:        1571.62 ave        1603 max        1545 min
Histogram: 2 0 0 2 1 0 1 0 1 1
Neighs:              0 ave           0 max           0 min
Histogram: 8 0 0 0 0 0 0 0 0 0
FullNghs:        27149 ave       28523 max       25751 min
Histogram: 2 0 1 1 0 0 1 0 1 2

Total # of neighbors = 217192
Ave neighs/atom = 108.596
Neighbor list builds = 16
Dangerous builds = 0
Final potential energy: 38835.2752940983 eV
Total wall time: 0:00:03
