LAMMPS (22 Jul 2025 - Update 1)
  using 1 OpenMP thread(s) per MPI task
Loading plugin: ACE potential loader for ACEpotentials.jl compiled models by ACEsuit developers
Lattice spacing in x,y,z = 3.19 3.19 3.19
Created orthogonal box = (0 0 0) to (31.9 31.9 31.9)
  1 by 1 by 1 MPI processor grid
Created 2000 atoms
  using lattice units in orthogonal box = (0 0 0) to (31.9 31.9 31.9)
  create_atoms CPU = 0.000 seconds
ACE: Loaded model from /home/eng/essswb/ace-potentials-julia-1.2/ACEpotentials.jl/benchmark/deployments/tial_etace_codegen/lib/libace_etace_poly.so
ACE: Cutoff = 5.5 Angstrom
ACE: Number of species = 2
ACE: Supported elements (Z): 22 13
ACE: Element mapping:
ACE:   Type 1 -> Ti (Z=22)
ACE:   Type 2 -> Al (Z=13)
Created B2 TiAl structure (ETACE polynomial)
Neighbor list info ...
  update: every = 1 steps, delay = 0 steps, check = yes
  max neighbors/atom: 2000, page size: 100000
  master list distance cutoff = 7.5
  ghost atom cutoff = 7.5
  binsize = 3.75, bins = 9 9 9
  1 neighbor lists, perpetual/occasional/extra = 1 0 0
  (1) pair ace, perpetual
      attributes: full, newton on
      pair build: full/bin/atomonly
      stencil: full/bin/3d
      bin: standard
Setting up cg style minimization ...
  Unit style    : metal
  Current step  : 0
Per MPI rank memory allocation (min/avg/max) = 5.134 | 5.134 | 5.134 Mbytes
   Step          Temp          E_pair         E_mol          TotEng         Press     
         0   0              77208.953      0              77208.953      3093984.1    
         1   0              77208.953      0              77208.953      3093984.1    
Loop time of 0.5978 on 1 procs for 1 steps with 2000 atoms

99.8% CPU use with 1 MPI tasks x 1 OpenMP threads

Minimization stats:
  Stopping criterion = energy tolerance
  Energy initial, next-to-last, final = 
       77208.952800566    77208.952800566   77208.9528005658
  Force two-norm initial, final = 1.681449e-12 6.7118579e-11
  Force max component initial, final = 7.283063e-14 2.9363179e-12
  Final line search alpha, max atom move = 1 2.9363179e-12
  Iterations, force evaluations = 1 1

MPI task timing breakdown:
Section |  min time  |  avg time  |  max time  |%varavg| %total
---------------------------------------------------------------
Pair    | 0.59759    | 0.59759    | 0.59759    |   0.0 | 99.97
Neigh   | 0          | 0          | 0          |   0.0 |  0.00
Comm    | 5.9353e-05 | 5.9353e-05 | 5.9353e-05 |   0.0 |  0.01
Output  | 0          | 0          | 0          |   0.0 |  0.00
Modify  | 0          | 0          | 0          |   0.0 |  0.00
Other   |            | 0.0001469  |            |       |  0.02

Nlocal:           2000 ave        2000 max        2000 min
Histogram: 1 0 0 0 0 0 0 0 0 0
Nghost:           4119 ave        4119 max        4119 min
Histogram: 1 0 0 0 0 0 0 0 0 0
Neighs:              0 ave           0 max           0 min
Histogram: 1 0 0 0 0 0 0 0 0 0
FullNghs:       224000 ave      224000 max      224000 min
Histogram: 1 0 0 0 0 0 0 0 0 0

Total # of neighbors = 224000
Ave neighs/atom = 112
Neighbor list builds = 0
Dangerous builds = 0
New timer settings: style=full  mode=nosync  timeout=off
Setting up Verlet run ...
  Unit style    : metal
  Current step  : 0
  Time step     : 0.001
Per MPI rank memory allocation (min/avg/max) = 4.009 | 4.009 | 4.009 Mbytes
   Step         PotEng         KinEng         TotEng         Press           Temp     
         0   77208.953      77.517309      77286.47       3096534.7      300          
        10   77113.813      172.94077      77286.754      3131975        669.29866    
        20   76034.341      1256.0987      77290.44       3232651        4861.232     
        30   66795.951      10498.602      77294.553      3095467.1      40630.674    
        40   48697.062      28555.216      77252.279      3159204.5      110511.64    
        50   50002.164      27273.622      77275.786      2835648.1      105551.74    
        60   50996.159      26279.981      77276.139      2668762        101706.24    
        70   49971.417      27305.767      77277.183      2630757.9      105676.14    
        80   47281.169      29992.68       77273.849      2680216.2      116074.77    
        90   43781.579      33492.43       77274.009      2626457.5      129619.17    
       100   36218.767      41038.244      77257.011      2703774.3      158822.25    
Loop time of 28.8673 on 1 procs for 100 steps with 2000 atoms

Performance: 0.299 ns/day, 80.187 hours/ns, 3.464 timesteps/s, 6.928 katom-step/s
99.7% CPU use with 1 MPI tasks x 1 OpenMP threads

MPI task timing breakdown:
Section |  min time  |  avg time  |  max time  |%varavg|  %CPU | %total
-----------------------------------------------------------------------
Pair    | 28.698     | 28.698     | 28.698     |   0.0 |  99.7 | 99.41
Neigh   | 0.15679    | 0.15679    | 0.15679    |   0.0 |  99.8 |  0.54
Comm    | 0.0067217  | 0.0067217  | 0.0067217  |   0.0 | 100.0 |  0.02
Output  | 0.00037021 | 0.00037021 | 0.00037021 |   0.0 | 100.0 |  0.00
Modify  | 0.0034034  | 0.0034034  | 0.0034034  |   0.0 | 100.0 |  0.01
Other   |            | 0.002434   |            |       |       |  0.01

Nlocal:           2000 ave        2000 max        2000 min
Histogram: 1 0 0 0 0 0 0 0 0 0
Nghost:           4451 ave        4451 max        4451 min
Histogram: 1 0 0 0 0 0 0 0 0 0
Neighs:              0 ave           0 max           0 min
Histogram: 1 0 0 0 0 0 0 0 0 0
FullNghs:       215236 ave      215236 max      215236 min
Histogram: 1 0 0 0 0 0 0 0 0 0

Total # of neighbors = 215236
Ave neighs/atom = 107.618
Neighbor list builds = 18
Dangerous builds = 0
Final potential energy: 36218.7674293572 eV
Total wall time: 0:00:30
