LAMMPS (22 Jul 2025 - Update 1)
  using 1 OpenMP thread(s) per MPI task
Loading plugin: ACE potential loader for ACEpotentials.jl compiled models by ACEsuit developers
Lattice spacing in x,y,z = 3.19 3.19 3.19
Created orthogonal box = (0 0 0) to (31.9 31.9 31.9)
  1 by 1 by 1 MPI processor grid
Created 2000 atoms
  using lattice units in orthogonal box = (0 0 0) to (31.9 31.9 31.9)
  create_atoms CPU = 0.000 seconds
ACE: Loaded model from /home/eng/essswb/ace-potentials-julia-1.2/ACEpotentials.jl/benchmark/deployments/tial_etace_codegen/lib/libace_etace_spline.so
ACE: Cutoff = 5.5 Angstrom
ACE: Number of species = 2
ACE: Supported elements (Z): 22 13
ACE: Element mapping:
ACE:   Type 1 -> Ti (Z=22)
ACE:   Type 2 -> Al (Z=13)
Created B2 TiAl structure (ETACE Hermite Spline)
Neighbor list info ...
  update: every = 1 steps, delay = 0 steps, check = yes
  max neighbors/atom: 2000, page size: 100000
  master list distance cutoff = 7.5
  ghost atom cutoff = 7.5
  binsize = 3.75, bins = 9 9 9
  1 neighbor lists, perpetual/occasional/extra = 1 0 0
  (1) pair ace, perpetual
      attributes: full, newton on
      pair build: full/bin/atomonly
      stencil: full/bin/3d
      bin: standard
Setting up cg style minimization ...
  Unit style    : metal
  Current step  : 0
Per MPI rank memory allocation (min/avg/max) = 5.134 | 5.134 | 5.134 Mbytes
   Step          Temp          E_pair         E_mol          TotEng         Press     
         0   0              66269.114      0              66269.114      3580870.2    
         1   0              66269.114      0              66269.114      3580870.2    
Loop time of 0.440343 on 1 procs for 1 steps with 2000 atoms

98.0% CPU use with 1 MPI tasks x 1 OpenMP threads

Minimization stats:
  Stopping criterion = energy tolerance
  Energy initial, next-to-last, final = 
      66269.1135615317   66269.1135615317   66269.1135615317
  Force two-norm initial, final = 1.5181762e-12 5.4730615e-11
  Force max component initial, final = 7.6771922e-14 2.777889e-12
  Final line search alpha, max atom move = 1 2.777889e-12
  Iterations, force evaluations = 1 1

MPI task timing breakdown:
Section |  min time  |  avg time  |  max time  |%varavg| %total
---------------------------------------------------------------
Pair    | 0.4401     | 0.4401     | 0.4401     |   0.0 | 99.95
Neigh   | 0          | 0          | 0          |   0.0 |  0.00
Comm    | 6.5914e-05 | 6.5914e-05 | 6.5914e-05 |   0.0 |  0.01
Output  | 0          | 0          | 0          |   0.0 |  0.00
Modify  | 0          | 0          | 0          |   0.0 |  0.00
Other   |            | 0.000173   |            |       |  0.04

Nlocal:           2000 ave        2000 max        2000 min
Histogram: 1 0 0 0 0 0 0 0 0 0
Nghost:           4119 ave        4119 max        4119 min
Histogram: 1 0 0 0 0 0 0 0 0 0
Neighs:              0 ave           0 max           0 min
Histogram: 1 0 0 0 0 0 0 0 0 0
FullNghs:       224000 ave      224000 max      224000 min
Histogram: 1 0 0 0 0 0 0 0 0 0

Total # of neighbors = 224000
Ave neighs/atom = 112
Neighbor list builds = 0
Dangerous builds = 0
New timer settings: style=full  mode=nosync  timeout=off
Setting up Verlet run ...
  Unit style    : metal
  Current step  : 0
  Time step     : 0.001
Per MPI rank memory allocation (min/avg/max) = 4.011 | 4.011 | 4.011 Mbytes
   Step         PotEng         KinEng         TotEng         Press           Temp     
         0   66269.114      77.517309      66346.631      3583420.9      300          
        10   66186.122      160.72804      66346.85       3604412.5      622.03413    
        20   65353.361      996.18576      66349.547      3647340.3      3855.3419    
        30   58344.77       8009.9812      66354.751      3596971.7      30999.455    
        40   42207.935      24112.542      66320.477      3648273.9      93318.031    
        50   41510.053      24829.848      66339.901      3500853.1      96094.078    
        60   43263.718      23079.244      66342.962      3460566.2      89319.062    
        70   41684.425      24657.974      66342.399      3522114.2      95428.909    
        80   39966.018      26373.348      66339.366      3513752.4      102067.58    
        90   39752.489      26587.888      66340.378      3483175.1      102897.88    
       100   38865.258      27473.725      66338.983      3435749.2      106326.15    
Loop time of 19.921 on 1 procs for 100 steps with 2000 atoms

Performance: 0.434 ns/day, 55.336 hours/ns, 5.020 timesteps/s, 10.040 katom-step/s
99.8% CPU use with 1 MPI tasks x 1 OpenMP threads

MPI task timing breakdown:
Section |  min time  |  avg time  |  max time  |%varavg|  %CPU | %total
-----------------------------------------------------------------------
Pair    | 19.772     | 19.772     | 19.772     |   0.0 |  99.7 | 99.25
Neigh   | 0.13628    | 0.13628    | 0.13628    |   0.0 |  99.8 |  0.68
Comm    | 0.0063594  | 0.0063594  | 0.0063594  |   0.0 | 100.0 |  0.03
Output  | 0.00035672 | 0.00035672 | 0.00035672 |   0.0 | 100.0 |  0.00
Modify  | 0.0033497  | 0.0033497  | 0.0033497  |   0.0 | 100.0 |  0.02
Other   |            | 0.002267   |            |       |       |  0.01

Nlocal:           2000 ave        2000 max        2000 min
Histogram: 1 0 0 0 0 0 0 0 0 0
Nghost:           4388 ave        4388 max        4388 min
Histogram: 1 0 0 0 0 0 0 0 0 0
Neighs:              0 ave           0 max           0 min
Histogram: 1 0 0 0 0 0 0 0 0 0
FullNghs:       217496 ave      217496 max      217496 min
Histogram: 1 0 0 0 0 0 0 0 0 0

Total # of neighbors = 217496
Ave neighs/atom = 108.748
Neighbor list builds = 16
Dangerous builds = 0
Final potential energy: 38865.2584845556 eV
Total wall time: 0:00:20
