LAMMPS (22 Jul 2025 - Update 1)
  using 1 OpenMP thread(s) per MPI task
Loading plugin: ACE potential loader for ACEpotentials.jl compiled models by ACEsuit developers
Lattice spacing in x,y,z = 3.19 3.19 3.19
Created orthogonal box = (0 0 0) to (31.9 31.9 31.9)
  1 by 1 by 2 MPI processor grid
Created 2000 atoms
  using lattice units in orthogonal box = (0 0 0) to (31.9 31.9 31.9)
  create_atoms CPU = 0.000 seconds
ACE: Loaded model from /home/eng/essswb/ace-potentials-julia-1.2/ACEpotentials.jl/benchmark/deployments/tial_ace/lib/libace_tial_ace.so
ACE: Cutoff = 5.5 Angstrom
ACE: Number of species = 2
ACE: Supported elements (Z): 22 13
ACE: Element mapping:
ACE:   Type 1 -> Ti (Z=22)
ACE:   Type 2 -> Al (Z=13)
Created B2 TiAl structure
Neighbor list info ...
  update: every = 1 steps, delay = 0 steps, check = yes
  max neighbors/atom: 2000, page size: 100000
  master list distance cutoff = 7.5
  ghost atom cutoff = 7.5
  binsize = 3.75, bins = 9 9 9
  1 neighbor lists, perpetual/occasional/extra = 1 0 0
  (1) pair ace, perpetual
      attributes: full, newton on
      pair build: full/bin/atomonly
      stencil: full/bin/3d
      bin: standard
Setting up cg style minimization ...
  Unit style    : metal
  Current step  : 0
Per MPI rank memory allocation (min/avg/max) = 4.734 | 4.734 | 4.734 Mbytes
   Step          Temp          E_pair         E_mol          TotEng         Press     
         0   0             -1692931.2      0             -1692931.2     -717941.9     
         1   0             -1692931.2      0             -1692931.2     -717941.9     
Loop time of 0.5076 on 2 procs for 1 steps with 2000 atoms

99.7% CPU use with 2 MPI tasks x 1 OpenMP threads

Minimization stats:
  Stopping criterion = linesearch alpha is zero
  Energy initial, next-to-last, final = 
     -1692931.24524234  -1692931.24524234  -1692931.24524234
  Force two-norm initial, final = 1.5783757e-12 1.5783757e-12
  Force max component initial, final = 5.5677685e-14 5.5677685e-14
  Final line search alpha, max atom move = 0.5 2.7838842e-14
  Iterations, force evaluations = 1 2

MPI task timing breakdown:
Section |  min time  |  avg time  |  max time  |%varavg| %total
---------------------------------------------------------------
Pair    | 0.4885     | 0.49788    | 0.50726    |   1.3 | 98.08
Neigh   | 0          | 0          | 0          |   0.0 |  0.00
Comm    | 0.00020247 | 0.0095789  | 0.018955   |   9.6 |  1.89
Output  | 0          | 0          | 0          |   0.0 |  0.00
Modify  | 0          | 0          | 0          |   0.0 |  0.00
Other   |            | 0.0001416  |            |       |  0.03

Nlocal:           1000 ave        1000 max        1000 min
Histogram: 2 0 0 0 0 0 0 0 0 0
Nghost:           3014 ave        3014 max        3014 min
Histogram: 2 0 0 0 0 0 0 0 0 0
Neighs:              0 ave           0 max           0 min
Histogram: 2 0 0 0 0 0 0 0 0 0
FullNghs:       112000 ave      112000 max      112000 min
Histogram: 2 0 0 0 0 0 0 0 0 0

Total # of neighbors = 224000
Ave neighs/atom = 112
Neighbor list builds = 0
Dangerous builds = 0
New timer settings: style=full  mode=nosync  timeout=off
Setting up Verlet run ...
  Unit style    : metal
  Current step  : 0
  Time step     : 0.001
Per MPI rank memory allocation (min/avg/max) = 3.609 | 3.609 | 3.609 Mbytes
   Step         PotEng         KinEng         TotEng         Press           Temp     
         0  -1692931.2      77.517309     -1692853.7     -715391.28      300          
        10  -1692998.5      140.35756     -1692858.1     -678664.69      543.19827    
        20  -1693440.9      552.19849     -1692888.7     -521509.41      2137.0653    
        30  -1694260.2      1267.3623     -1692992.9     -282125.56      4904.8233    
        40  -1694682.8      1536.3156     -1693146.5     -81517.66       5945.7003    
        50  -1694770.5      1497.7165     -1693272.8      741.64383      5796.3178    
        60  -1694777.9      1433.9275     -1693344        36253.825      5549.4475    
        70  -1694788.3      1437.7985     -1693350.5      50819.508      5564.4289    
        80  -1694883.2      1592.3996     -1693290.8      42676.089      6162.7511    
        90  -1695038.9      1857.7001     -1693181.2      21455.528      7189.4916    
       100  -1695169.6      2122.0691     -1693047.5     -2000.3727      8212.6268    
Loop time of 16.1403 on 2 procs for 100 steps with 2000 atoms

Performance: 0.535 ns/day, 44.834 hours/ns, 6.196 timesteps/s, 12.391 katom-step/s
99.5% CPU use with 2 MPI tasks x 1 OpenMP threads

MPI task timing breakdown:
Section |  min time  |  avg time  |  max time  |%varavg|  %CPU | %total
-----------------------------------------------------------------------
Pair    | 15.801     | 15.862     | 15.923     |   1.5 |  99.5 | 98.28
Neigh   | 0.017      | 0.017072   | 0.017144   |   0.1 |  99.8 |  0.11
Comm    | 0.19609    | 0.2573     | 0.31851    |  12.1 |  99.3 |  1.59
Output  | 0.00028774 | 0.00034866 | 0.00040958 |   0.0 | 100.0 |  0.00
Modify  | 0.0013897  | 0.0013987  | 0.0014077  |   0.0 | 100.0 |  0.01
Other   |            | 0.001845   |            |       |       |  0.01

Nlocal:           1000 ave        1003 max         997 min
Histogram: 1 0 0 0 0 0 0 0 0 1
Nghost:           3216 ave        3226 max        3206 min
Histogram: 1 0 0 0 0 0 0 0 0 1
Neighs:              0 ave           0 max           0 min
Histogram: 2 0 0 0 0 0 0 0 0 0
FullNghs:       108126 ave      108504 max      107748 min
Histogram: 1 0 0 0 0 0 0 0 0 1

Total # of neighbors = 216252
Ave neighs/atom = 108.126
Neighbor list builds = 4
Dangerous builds = 0
Final potential energy: -1695169.58143205 eV
Total wall time: 0:00:17
