LAMMPS (22 Jul 2025 - Update 1)
  using 1 OpenMP thread(s) per MPI task
Lattice spacing in x,y,z = 3.19 3.19 3.19
Created orthogonal box = (0 0 0) to (31.9 31.9 31.9)
  1 by 1 by 2 MPI processor grid
Created 2000 atoms
  using lattice units in orthogonal box = (0 0 0) to (31.9 31.9 31.9)
  create_atoms CPU = 0.000 seconds
ACE version: 2023.11.25
Recursive evaluator is used
Loading /home/eng/essswb/ace-potentials-julia-1.2/ACEpotentials.jl/benchmark/lammps/tial_model.yace
Total number of basis functions
	Al: 32 (r=1) 1166 (r>1)
	Ti: 32 (r=1) 1166 (r>1)
Mapping LAMMPS atom type #1(Ti) -> ACE species type #1
Mapping LAMMPS atom type #2(Al) -> ACE species type #0
Reading pair table potential file /home/eng/essswb/ace-potentials-julia-1.2/ACEpotentials.jl/benchmark/lammps/tial_model_pairpot.table with DATE: none
WARNING: 1 of 5500 force values in table Ti_Ti are inconsistent with -dE/dr.
WARNING:  Should only be flagged at inflection points (src/pair_table.cpp:469)
Reading pair table potential file /home/eng/essswb/ace-potentials-julia-1.2/ACEpotentials.jl/benchmark/lammps/tial_model_pairpot.table with DATE: none
Reading pair table potential file /home/eng/essswb/ace-potentials-julia-1.2/ACEpotentials.jl/benchmark/lammps/tial_model_pairpot.table with DATE: none
WARNING: 1 of 5500 force values in table Al_Al are inconsistent with -dE/dr.
WARNING:  Should only be flagged at inflection points (src/pair_table.cpp:469)
Created B2 TiAl structure
Neighbor list info ...
  update: every = 1 steps, delay = 0 steps, check = yes
  max neighbors/atom: 2000, page size: 100000
  master list distance cutoff = 7.5
  ghost atom cutoff = 7.5
  binsize = 3.75, bins = 9 9 9
  2 neighbor lists, perpetual/occasional/extra = 2 0 0
  (1) pair pace, perpetual
      attributes: full, newton on
      pair build: full/bin/atomonly
      stencil: full/bin/3d
      bin: standard
  (2) pair table, perpetual, half/full from (1)
      attributes: half, newton on
      pair build: halffull/newton
      stencil: none
      bin: none
Setting up cg style minimization ...
  Unit style    : metal
  Current step  : 0
Per MPI rank memory allocation (min/avg/max) = 5.365 | 5.365 | 5.365 Mbytes
   Step          Temp          E_pair         E_mol          TotEng         Press     
         0   0             -1704277        0             -1704277       -242374.52    
         1   0             -1704277        0             -1704277       -242374.52    
Loop time of 0.231114 on 2 procs for 1 steps with 2000 atoms

99.8% CPU use with 2 MPI tasks x 1 OpenMP threads

Minimization stats:
  Stopping criterion = energy tolerance
  Energy initial, next-to-last, final = 
     -1704276.97433634  -1704276.97433634  -1704276.97433634
  Force two-norm initial, final = 9.7213111e-13 9.3328913e-13
  Force max component initial, final = 4.1577852e-14 4.1855408e-14
  Final line search alpha, max atom move = 1 4.1855408e-14
  Iterations, force evaluations = 1 2

MPI task timing breakdown:
Section |  min time  |  avg time  |  max time  |%varavg| %total
---------------------------------------------------------------
Pair    | 0.21988    | 0.22537    | 0.23086    |   1.2 | 97.52
Neigh   | 0          | 0          | 0          |   0.0 |  0.00
Comm    | 0.00014405 | 0.0056347  | 0.011125   |   7.3 |  2.44
Output  | 0          | 0          | 0          |   0.0 |  0.00
Modify  | 0          | 0          | 0          |   0.0 |  0.00
Other   |            | 0.0001075  |            |       |  0.05

Nlocal:           1000 ave        1000 max        1000 min
Histogram: 2 0 0 0 0 0 0 0 0 0
Nghost:           3014 ave        3014 max        3014 min
Histogram: 2 0 0 0 0 0 0 0 0 0
Neighs:          56000 ave       56000 max       56000 min
Histogram: 2 0 0 0 0 0 0 0 0 0
FullNghs:       112000 ave      112000 max      112000 min
Histogram: 2 0 0 0 0 0 0 0 0 0

Total # of neighbors = 224000
Ave neighs/atom = 112
Neighbor list builds = 0
Dangerous builds = 0
New timer settings: style=full  mode=nosync  timeout=off
Setting up Verlet run ...
  Unit style    : metal
  Current step  : 0
  Time step     : 0.001
Per MPI rank memory allocation (min/avg/max) = 4.24 | 4.24 | 4.24 Mbytes
   Step         PotEng         KinEng         TotEng         Press           Temp     
         0  -1704277        77.517309     -1704199.5     -239823.9       300          
        10  -1704254.1      54.625224     -1704199.4     -236211.3       211.40527    
        20  -1704221.3      21.869745     -1704199.4     -225953.1       84.638176    
        30  -1704225.2      25.800745     -1704199.4     -224391.15      99.851551    
        40  -1704249.4      49.913506     -1704199.4     -230312.3       193.17043    
        50  -1704254.6      55.187292     -1704199.4     -229151.75      213.58052    
        60  -1704247.5      48.126764     -1704199.4     -221681.64      186.25555    
        70  -1704254.4      54.945307     -1704199.4     -215967.96      212.64402    
        80  -1704275.3      75.863257     -1704199.4     -212714.47      293.59865    
        90  -1704292.1      92.621417     -1704199.4     -207402.18      358.45446    
       100  -1704301.8      102.36743     -1704199.4     -201390.88      396.17255    
Loop time of 8.24145 on 2 procs for 100 steps with 2000 atoms

Performance: 1.048 ns/day, 22.893 hours/ns, 12.134 timesteps/s, 24.268 katom-step/s
99.7% CPU use with 2 MPI tasks x 1 OpenMP threads

MPI task timing breakdown:
Section |  min time  |  avg time  |  max time  |%varavg|  %CPU | %total
-----------------------------------------------------------------------
Pair    | 8.1369     | 8.1747     | 8.2125     |   1.3 |  99.8 | 99.19
Neigh   | 0          | 0          | 0          |   0.0 | 100.0 |  0.00
Comm    | 0.025854   | 0.063669   | 0.10148    |  15.0 |  97.9 |  0.77
Output  | 0.00024271 | 0.00028479 | 0.00032687 |   0.0 | 100.0 |  0.00
Modify  | 0.0011807  | 0.0011943  | 0.0012078  |   0.0 | 100.0 |  0.01
Other   |            | 0.001563   |            |       |       |  0.02

Nlocal:           1000 ave        1000 max        1000 min
Histogram: 2 0 0 0 0 0 0 0 0 0
Nghost:           3014 ave        3014 max        3014 min
Histogram: 2 0 0 0 0 0 0 0 0 0
Neighs:          56000 ave       56000 max       56000 min
Histogram: 2 0 0 0 0 0 0 0 0 0
FullNghs:       112000 ave      112000 max      112000 min
Histogram: 2 0 0 0 0 0 0 0 0 0

Total # of neighbors = 224000
Ave neighs/atom = 112
Neighbor list builds = 0
Dangerous builds = 0
Final potential energy: -1704301.79454687 eV
Total wall time: 0:00:16
