LAMMPS (22 Jul 2025 - Update 1)
  using 1 OpenMP thread(s) per MPI task
Loading plugin: ACE potential loader for ACEpotentials.jl compiled models by ACEsuit developers
Lattice spacing in x,y,z = 3.19 3.19 3.19
Created orthogonal box = (0 0 0) to (31.9 31.9 31.9)
  1 by 1 by 1 MPI processor grid
Created 2000 atoms
  using lattice units in orthogonal box = (0 0 0) to (31.9 31.9 31.9)
  create_atoms CPU = 0.000 seconds
ACE: Loaded model from /home/eng/essswb/ace-potentials-julia-1.2/ACEpotentials.jl/benchmark/fair_comparison/deployments/etace_poly/lib/libace_fair_etace_poly.so
ACE: Cutoff = 5.5 Angstrom
ACE: Number of species = 2
ACE: Supported elements (Z): 22 13
ACE: Element mapping:
ACE:   Type 1 -> Ti (Z=22)
ACE:   Type 2 -> Al (Z=13)
Created B2 TiAl structure (ETACE Polynomial)
Neighbor list info ...
  update: every = 1 steps, delay = 0 steps, check = yes
  max neighbors/atom: 2000, page size: 100000
  master list distance cutoff = 7.5
  ghost atom cutoff = 7.5
  binsize = 3.75, bins = 9 9 9
  1 neighbor lists, perpetual/occasional/extra = 1 0 0
  (1) pair ace, perpetual
      attributes: full, newton on
      pair build: full/bin/atomonly
      stencil: full/bin/3d
      bin: standard
Setting up cg style minimization ...
  Unit style    : metal
  Current step  : 0
Per MPI rank memory allocation (min/avg/max) = 5.134 | 5.134 | 5.134 Mbytes
   Step          Temp          E_pair         E_mol          TotEng         Press     
         0   0             -1660384.2      0             -1660384.2      6149134.8    
         1   0             -1660384.2      0             -1660384.2      6149134.8    
Loop time of 1.04289 on 1 procs for 1 steps with 2000 atoms

99.7% CPU use with 1 MPI tasks x 1 OpenMP threads

Minimization stats:
  Stopping criterion = linesearch alpha is zero
  Energy initial, next-to-last, final = 
     -1660384.24155716  -1660384.24155716  -1660384.24155716
  Force two-norm initial, final = 6.0489449e-12 6.0489449e-12
  Force max component initial, final = 2.00992e-13 2.00992e-13
  Final line search alpha, max atom move = 0.5 1.00496e-13
  Iterations, force evaluations = 1 2

MPI task timing breakdown:
Section |  min time  |  avg time  |  max time  |%varavg| %total
---------------------------------------------------------------
Pair    | 1.0426     | 1.0426     | 1.0426     |   0.0 | 99.97
Neigh   | 0          | 0          | 0          |   0.0 |  0.00
Comm    | 9.3401e-05 | 9.3401e-05 | 9.3401e-05 |   0.0 |  0.01
Output  | 0          | 0          | 0          |   0.0 |  0.00
Modify  | 0          | 0          | 0          |   0.0 |  0.00
Other   |            | 0.0001852  |            |       |  0.02

Nlocal:           2000 ave        2000 max        2000 min
Histogram: 1 0 0 0 0 0 0 0 0 0
Nghost:           4119 ave        4119 max        4119 min
Histogram: 1 0 0 0 0 0 0 0 0 0
Neighs:              0 ave           0 max           0 min
Histogram: 1 0 0 0 0 0 0 0 0 0
FullNghs:       224000 ave      224000 max      224000 min
Histogram: 1 0 0 0 0 0 0 0 0 0

Total # of neighbors = 224000
Ave neighs/atom = 112
Neighbor list builds = 0
Dangerous builds = 0
New timer settings: style=full  mode=nosync  timeout=off
Setting up Verlet run ...
  Unit style    : metal
  Current step  : 0
  Time step     : 0.001
Per MPI rank memory allocation (min/avg/max) = 4.009 | 4.009 | 4.009 Mbytes
   Step         PotEng         KinEng         TotEng         Press           Temp     
         0  -1660384.2      77.517309     -1660306.7      6151685.5      300          
        10  -1660555.9      250.30508     -1660305.6      6178503.4      968.70655    
        20  -1665855        5599.2456     -1660255.7      5446031.2      21669.66     
        30  -2086073.1      433919.57     -1652153.5      191840.66      1679313.6    
        40  -3973043.8      5315134.8      1342091        90552753       20570121     
        50  -3859200.7      8371925.2      4512724.4      1.9056971e+08  32400216     
        60  -3551062.9      11603990       8052927.5      2.8060958e+08  44908643     
        70  -3037099.1      23002228       19965129       6.7492832e+08  89020999     
        80  -3560169.5      27522812       23962643       7.8471319e+08  1.0651613e+08
        90  -2039618.7      29886743       27847124       9.5807693e+08  1.1566479e+08
       100  -2212434.8      30678582       28466147       9.698535e+08   1.1872928e+08
Loop time of 30.5259 on 1 procs for 100 steps with 2000 atoms

Performance: 0.283 ns/day, 84.794 hours/ns, 3.276 timesteps/s, 6.552 katom-step/s
99.7% CPU use with 1 MPI tasks x 1 OpenMP threads

MPI task timing breakdown:
Section |  min time  |  avg time  |  max time  |%varavg|  %CPU | %total
-----------------------------------------------------------------------
Pair    | 29.814     | 29.814     | 29.814     |   0.0 |  99.7 | 97.67
Neigh   | 0.68763    | 0.68763    | 0.68763    |   0.0 |  99.7 |  2.25
Comm    | 0.01756    | 0.01756    | 0.01756    |   0.0 | 100.0 |  0.06
Output  | 0.00037624 | 0.00037624 | 0.00037624 |   0.0 | 100.0 |  0.00
Modify  | 0.0033173  | 0.0033173  | 0.0033173  |   0.0 | 100.0 |  0.01
Other   |            | 0.003223   |            |       |       |  0.01

Nlocal:           2000 ave        2000 max        2000 min
Histogram: 1 0 0 0 0 0 0 0 0 0
Nghost:           4479 ave        4479 max        4479 min
Histogram: 1 0 0 0 0 0 0 0 0 0
Neighs:              0 ave           0 max           0 min
Histogram: 1 0 0 0 0 0 0 0 0 0
FullNghs:       221134 ave      221134 max      221134 min
Histogram: 1 0 0 0 0 0 0 0 0 0

Total # of neighbors = 221134
Ave neighs/atom = 110.567
Neighbor list builds = 74
Dangerous builds = 71
Final potential energy: -2212434.76341511 eV
Total wall time: 0:00:32
